variables = 'X', 'Y', 'Z', 'e3', 'e2', 'e1' 
ZONE F=FEPOINT, N=   7940, E=   7840, ET=QUADRILATERAL
   49.7959    1.1250    0.0000    0.0000    0.7331   -0.6802
   50.1390    1.1250    0.0000    0.0000    0.9888   -0.1490
   50.4821    1.1250    0.0000   -0.0000    0.9010    0.4339
   50.8252    1.1250    0.0000    0.0000    0.5000    0.8660
   51.1683    1.1250    0.0000   -0.0000   -0.0747    0.9972
   51.5114    1.1250    0.0000    0.0000   -0.6235    0.7818
   51.8544    1.1250    0.0000    0.0000   -0.9556    0.2948
   52.1975    1.1250    0.0000    0.0000   -0.9556   -0.2948
   52.5406    1.1250    0.0000    0.0000   -0.6235   -0.7818
   52.8837    1.1250    0.0000   -0.0000   -0.0747   -0.9972
   53.2268    1.1250    0.0000    0.0000    0.5000   -0.8660
   53.5699    1.1250    0.0000   -0.0000    0.9010   -0.4339
   53.9130    1.1250    0.0000    0.0000    0.9888    0.1490
   54.2561    1.1250    0.0000    0.0000    0.7331    0.6802
   54.5992    1.1250    0.0000   -0.0000    0.2225    0.9749
   54.9423    1.1250    0.0000   -0.0000   -0.3653    0.9309
   55.2854    1.1250    0.0000    0.0000   -0.8262    0.5633
   55.6285    1.1250    0.0000    0.0000   -1.0000   -0.0000
   55.9716    1.1250    0.0000   -0.0000   -0.8262   -0.5633
   56.3147    1.1250    0.0000    0.0000   -0.3653   -0.9309
   56.6578    1.1250    0.0000   -0.0000    0.2225   -0.9749
   57.0009    1.1250    0.0000    0.0000    0.7331   -0.6802
   57.3440    1.1250    0.0000    0.0000    0.9888   -0.1490
   57.6871    1.1250    0.0000   -0.0000    0.9010    0.4339
   58.0302    1.1250    0.0000    0.0000    0.5000    0.8660
   58.3733    1.1250    0.0000    0.0000   -0.0747    0.9972
   58.7163    1.1250    0.0000    0.0000   -0.6235    0.7818
   59.0594    1.1250    0.0000    0.0000   -0.9556    0.2948
   59.4025    1.1250    0.0000    0.0000   -0.9556   -0.2948
   59.7456    1.1250    0.0000    0.0000   -0.6235   -0.7818
   60.0887    1.1250    0.0000   -0.0000   -0.0747   -0.9972
   60.4318    1.1250    0.0000    0.0000    0.5000   -0.8660
   60.7749    1.1250    0.0000    0.0000    0.9010   -0.4339
   61.1180    1.1250    0.0000    0.0000    0.9888    0.1490
   62.1880    2.5976    0.0000   -0.6972   -0.2265   -0.6802
   62.0834    2.9194    0.0000   -0.9404   -0.3056   -0.1490
   61.9789    3.2412    0.0000   -0.8569   -0.2784    0.4339
   61.8743    3.5629    0.0000   -0.4755   -0.1545    0.8660
   61.7698    3.8847    0.0000    0.0711    0.0231    0.9972
   61.6652    4.2064    0.0000    0.5930    0.1927    0.7818
   61.5607    4.5282    0.0000    0.9088    0.2953    0.2948
   61.4561    4.8499    0.0000    0.9088    0.2953   -0.2948
   61.3516    5.1717    0.0000    0.5930    0.1927   -0.7818
   61.2470    5.4935    0.0000    0.0711    0.0231   -0.9972
   61.1425    5.8152    0.0000   -0.4755   -0.1545   -0.8660
   61.0380    6.1370    0.0000   -0.8569   -0.2784   -0.4339
   60.9334    6.4587    0.0000   -0.9404   -0.3056    0.1490
   60.8289    6.7805    0.0000   -0.6972   -0.2265    0.6802
   60.7243    7.1022    0.0000   -0.2116   -0.0688    0.9749
   60.6198    7.4240    0.0000    0.3475    0.1129    0.9309
   60.5152    7.7458    0.0000    0.7858    0.2553    0.5633
   60.4107    8.0675    0.0000    0.9511    0.3090   -0.0000
   60.3061    8.3893    0.0000    0.7858    0.2553   -0.5633
   60.2016    8.7110    0.0000    0.3475    0.1129   -0.9309
   60.0970    9.0328    0.0000   -0.2116   -0.0688   -0.9749
   59.9925    9.3545    0.0000   -0.6972   -0.2265   -0.6802
   59.8880    9.6763    0.0000   -0.9404   -0.3056   -0.1490
   59.7834    9.9981    0.0000   -0.8569   -0.2784    0.4339
   59.6789   10.3198    0.0000   -0.4755   -0.1545    0.8660
   59.5743   10.6416    0.0000    0.0711    0.0231    0.9972
   59.4698   10.9633    0.0000    0.5930    0.1927    0.7818
   59.3652   11.2851    0.0000    0.9088    0.2953    0.2948
   59.2607   11.6069    0.0000    0.9088    0.2953   -0.2948
   59.1561   11.9286    0.0000    0.5930    0.1927   -0.7818
   59.0516   12.2504    0.0000    0.0711    0.0231   -0.9972
   58.9470   12.5721    0.0000   -0.4755   -0.1545   -0.8660
   58.8425   12.8939    0.0000   -0.8569   -0.2784   -0.4339
   58.7380   13.2156    0.0000   -0.9404   -0.3056    0.1490
   58.6334   13.5374    0.0000   -0.6972   -0.2265    0.6802
   58.5289   13.8592    0.0000   -0.2116   -0.0688    0.9749
   58.4243   14.1809    0.0000    0.3475    0.1129    0.9309
   58.3198   14.5027    0.0000    0.7858    0.2553    0.5633
   58.2152   14.8244    0.0000    0.9511    0.3090   -0.0000
   58.1107   15.1462    0.0000    0.7858    0.2553   -0.5633
   58.0061   15.4679    0.0000    0.3475    0.1129   -0.9309
   57.9016   15.7897    0.0000   -0.2116   -0.0688   -0.9749
   57.7970   16.1115    0.0000   -0.6972   -0.2265   -0.6802
   57.6925   16.4332    0.0000   -0.9404   -0.3056   -0.1490
   57.5880   16.7550    0.0000   -0.8569   -0.2784    0.4339
   57.4834   17.0767    0.0000   -0.4755   -0.1545    0.8660
   57.3789   17.3985    0.0000    0.0711    0.0231    0.9972
   57.2743   17.7202    0.0000    0.5930    0.1927    0.7818
   57.1698   18.0420    0.0000    0.9088    0.2953    0.2948
   57.0652   18.3638    0.0000    0.9088    0.2953   -0.2948
   56.9607   18.6855    0.0000    0.5930    0.1927   -0.7818
   56.8561   19.0073    0.0000    0.0711    0.0231   -0.9972
   56.7516   19.3290    0.0000   -0.4755   -0.1545   -0.8660
   56.6471   19.6508    0.0000   -0.8569   -0.2784   -0.4339
   56.5425   19.9725    0.0000   -0.9404   -0.3056    0.1490
   56.4380   20.2943    0.0000   -0.6972   -0.2265    0.6802
   56.3334   20.6161    0.0000   -0.2116   -0.0688    0.9749
   56.2289   20.9378    0.0000    0.3475    0.1129    0.9309
   56.1243   21.2596    0.0000    0.7858    0.2553    0.5633
   56.0198   21.5813    0.0000    0.9511    0.3090    0.0000
   55.9152   21.9031    0.0000    0.7858    0.2553   -0.5633
   55.8107   22.2248    0.0000    0.3475    0.1129   -0.9309
   55.7061   22.5466    0.0000   -0.2116   -0.0688   -0.9749
   55.6016   22.8684    0.0000   -0.6972   -0.2265   -0.6802
   55.4971   23.1901    0.0000   -0.9404   -0.3056   -0.1490
   55.3925   23.5119    0.0000   -0.8569   -0.2784    0.4339
   55.2880   23.8336    0.0000   -0.4755   -0.1545    0.8660
   55.1834   24.1554    0.0000    0.0711    0.0231    0.9972
   55.0789   24.4771    0.0000    0.5930    0.1927    0.7818
   54.9743   24.7989    0.0000    0.9088    0.2953    0.2948
   54.8698   25.1207    0.0000    0.9088    0.2953   -0.2948
   54.7652   25.4424    0.0000    0.5930    0.1927   -0.7818
   54.6607   25.7642    0.0000    0.0711    0.0231   -0.9972
   54.5561   26.0859    0.0000   -0.4755   -0.1545   -0.8660
   54.4516   26.4077    0.0000   -0.8569   -0.2784   -0.4339
   54.3471   26.7294    0.0000   -0.9404   -0.3056    0.1490
   54.2425   27.0512    0.0000   -0.6972   -0.2265    0.6802
   54.1380   27.3730    0.0000   -0.2116   -0.0688    0.9749
   54.0334   27.6947    0.0000    0.3475    0.1129    0.9309
   53.9289   28.0165    0.0000    0.7858    0.2553    0.5633
   53.8243   28.3382    0.0000    0.9511    0.3090    0.0000
   53.7198   28.6600    0.0000    0.7858    0.2553   -0.5633
   53.6152   28.9817    0.0000    0.3475    0.1129   -0.9309
   53.5107   29.3035    0.0000   -0.2116   -0.0688   -0.9749
   53.4061   29.6253    0.0000   -0.6972   -0.2265   -0.6802
   53.3016   29.9470    0.0000   -0.9404   -0.3056   -0.1490
   53.1971   30.2688    0.0000   -0.8569   -0.2784    0.4339
   53.0925   30.5905    0.0000   -0.4755   -0.1545    0.8660
   52.9880   30.9123    0.0000    0.0711    0.0231    0.9972
   52.8834   31.2340    0.0000    0.5930    0.1927    0.7818
   52.7789   31.5558    0.0000    0.9088    0.2953    0.2948
   52.6743   31.8776    0.0000    0.9088    0.2953   -0.2948
   52.5698   32.1993    0.0000    0.5930    0.1927   -0.7818
   52.4652   32.5211    0.0000    0.0711    0.0231   -0.9972
   52.3607   32.8428    0.0000   -0.4755   -0.1545   -0.8660
   52.2561   33.1646    0.0000   -0.8569   -0.2784   -0.4339
   52.1516   33.4864    0.0000   -0.9404   -0.3056    0.1490
   52.0471   33.8081    0.0000   -0.6972   -0.2265    0.6802
   51.9425   34.1299    0.0000   -0.2116   -0.0688    0.9749
   51.8380   34.4516    0.0000    0.3475    0.1129    0.9309
   50.1068   35.0141    0.0000    0.4309   -0.5931   -0.6802
   49.8292   34.8125    0.0000    0.5812   -0.8000   -0.1490
   49.5516   34.6108    0.0000    0.5296   -0.7289    0.4339
   49.2741   34.4091    0.0000    0.2939   -0.4045    0.8660
   48.9965   34.2075    0.0000   -0.0439    0.0605    0.9972
   48.7189   34.0058    0.0000   -0.3665    0.5044    0.7818
   48.4414   33.8041    0.0000   -0.5617    0.7731    0.2948
   48.1638   33.6025    0.0000   -0.5617    0.7731   -0.2948
   47.8862   33.4008    0.0000   -0.3665    0.5044   -0.7818
   47.6086   33.1991    0.0000   -0.0439    0.0605   -0.9972
   47.3311   32.9975    0.0000    0.2939   -0.4045   -0.8660
   47.0535   32.7958    0.0000    0.5296   -0.7289   -0.4339
   46.7759   32.5941    0.0000    0.5812   -0.8000    0.1490
   46.4984   32.3925    0.0000    0.4309   -0.5931    0.6802
   46.2208   32.1908    0.0000    0.1308   -0.1800    0.9749
   45.9432   31.9891    0.0000   -0.2147    0.2956    0.9309
   45.6657   31.7875    0.0000   -0.4857    0.6684    0.5633
   45.3881   31.5858    0.0000   -0.5878    0.8090   -0.0000
   45.1105   31.3841    0.0000   -0.4857    0.6684   -0.5633
   44.8329   31.1825    0.0000   -0.2147    0.2956   -0.9309
   44.5554   30.9808    0.0000    0.1308   -0.1800   -0.9749
   44.2778   30.7791    0.0000    0.4309   -0.5931   -0.6802
   44.0002   30.5775    0.0000    0.5812   -0.8000   -0.1490
   43.7227   30.3758    0.0000    0.5296   -0.7289    0.4339
   43.4451   30.1741    0.0000    0.2939   -0.4045    0.8660
   43.1675   29.9725    0.0000   -0.0439    0.0605    0.9972
   42.8900   29.7708    0.0000   -0.3665    0.5044    0.7818
   42.6124   29.5691    0.0000   -0.5617    0.7731    0.2948
   42.3348   29.3675    0.0000   -0.5617    0.7731   -0.2948
   42.0572   29.1658    0.0000   -0.3665    0.5044   -0.7818
   41.7797   28.9641    0.0000   -0.0439    0.0605   -0.9972
   41.5021   28.7625    0.0000    0.2939   -0.4045   -0.8660
   41.2245   28.5608    0.0000    0.5296   -0.7289   -0.4339
   40.9470   28.3591    0.0000    0.5812   -0.8000    0.1490
   40.5383   27.1013    0.0000    0.6972    0.2265   -0.6802
   40.6433   26.7783    0.0000    0.9404    0.3056   -0.1490
   40.7482   26.4552    0.0000    0.8569    0.2784    0.4339
   40.8532   26.1322    0.0000    0.4755    0.1545    0.8660
   40.9582   25.8091    0.0000   -0.0711   -0.0231    0.9972
   41.0631   25.4860    0.0000   -0.5930   -0.1927    0.7818
   41.1681   25.1630    0.0000   -0.9088   -0.2953    0.2948
   41.2731   24.8399    0.0000   -0.9088   -0.2953   -0.2948
   41.3780   24.5168    0.0000   -0.5930   -0.1927   -0.7818
   41.4830   24.1938    0.0000   -0.0711   -0.0231   -0.9972
   41.5880   23.8707    0.0000    0.4755    0.1545   -0.8660
   41.6930   23.5476    0.0000    0.8569    0.2784   -0.4339
   41.7979   23.2246    0.0000    0.9404    0.3056    0.1490
   41.9029   22.9015    0.0000    0.6972    0.2265    0.6802
   42.0079   22.5785    0.0000    0.2116    0.0688    0.9749
   42.1128   22.2554    0.0000   -0.3475   -0.1129    0.9309
   42.2178   21.9323    0.0000   -0.7858   -0.2553    0.5633
   42.3228   21.6093    0.0000   -0.9511   -0.3090    0.0000
   42.4277   21.2862    0.0000   -0.7858   -0.2553   -0.5633
   42.5327   20.9631    0.0000   -0.3475   -0.1129   -0.9309
   42.6377   20.6401    0.0000    0.2116    0.0688   -0.9749
   42.7427   20.3170    0.0000    0.6972    0.2265   -0.6802
   42.8476   19.9939    0.0000    0.9404    0.3056   -0.1490
   42.9526   19.6709    0.0000    0.8569    0.2784    0.4339
   43.0576   19.3478    0.0000    0.4755    0.1545    0.8660
   43.1625   19.0247    0.0000   -0.0711   -0.0231    0.9972
   43.2675   18.7017    0.0000   -0.5930   -0.1927    0.7818
   43.3725   18.3786    0.0000   -0.9088   -0.2953    0.2948
   43.4774   18.0556    0.0000   -0.9088   -0.2953   -0.2948
   43.5824   17.7325    0.0000   -0.5930   -0.1927   -0.7818
   43.6874   17.4094    0.0000   -0.0711   -0.0231   -0.9972
   43.7924   17.0864    0.0000    0.4755    0.1545   -0.8660
   43.8973   16.7633    0.0000    0.8569    0.2784   -0.4339
   44.0023   16.4402    0.0000    0.9404    0.3056    0.1490
   44.1073   16.1172    0.0000    0.6972    0.2265    0.6802
   44.2122   15.7941    0.0000    0.2116    0.0688    0.9749
   44.3172   15.4710    0.0000   -0.3475   -0.1129    0.9309
   44.4222   15.1480    0.0000   -0.7858   -0.2553    0.5633
   44.5271   14.8249    0.0000   -0.9511   -0.3090   -0.0000
   44.6321   14.5019    0.0000   -0.7858   -0.2553   -0.5633
   44.7371   14.1788    0.0000   -0.3475   -0.1129   -0.9309
   44.8421   13.8557    0.0000    0.2116    0.0688   -0.9749
   44.9470   13.5327    0.0000    0.6972    0.2265   -0.6802
   45.0520   13.2096    0.0000    0.9404    0.3056   -0.1490
   45.1570   12.8865    0.0000    0.8569    0.2784    0.4339
   45.2619   12.5635    0.0000    0.4755    0.1545    0.8660
   45.3669   12.2404    0.0000   -0.0711   -0.0231    0.9972
   45.4719   11.9173    0.0000   -0.5930   -0.1927    0.7818
   45.5768   11.5943    0.0000   -0.9088   -0.2953    0.2948
   45.6818   11.2712    0.0000   -0.9088   -0.2953   -0.2948
   45.7868   10.9481    0.0000   -0.5930   -0.1927   -0.7818
   45.8918   10.6251    0.0000   -0.0711   -0.0231   -0.9972
   45.9967   10.3020    0.0000    0.4755    0.1545   -0.8660
   46.1017    9.9790    0.0000    0.8569    0.2784   -0.4339
   46.2067    9.6559    0.0000    0.9404    0.3056    0.1490
   46.3116    9.3328    0.0000    0.6972    0.2265    0.6802
   46.4166    9.0098    0.0000    0.2116    0.0688    0.9749
   46.5216    8.6867    0.0000   -0.3475   -0.1129    0.9309
   46.6265    8.3636    0.0000   -0.7858   -0.2553    0.5633
   46.7315    8.0406    0.0000   -0.9511   -0.3090   -0.0000
   46.8365    7.7175    0.0000   -0.7858   -0.2553   -0.5633
   46.9414    7.3944    0.0000   -0.3475   -0.1129   -0.9309
   47.0464    7.0714    0.0000    0.2116    0.0688   -0.9749
   47.1514    6.7483    0.0000    0.6972    0.2265   -0.6802
   47.2564    6.4253    0.0000    0.9404    0.3056   -0.1490
   47.3613    6.1022    0.0000    0.8569    0.2784    0.4339
   47.4663    5.7791    0.0000    0.4755    0.1545    0.8660
   47.5713    5.4561    0.0000   -0.0711   -0.0231    0.9972
   47.6762    5.1330    0.0000   -0.5930   -0.1927    0.7818
   47.7812    4.8099    0.0000   -0.9088   -0.2953    0.2948
   47.8862    4.4869    0.0000   -0.9088   -0.2953   -0.2948
   47.9911    4.1638    0.0000   -0.5930   -0.1927   -0.7818
   48.0961    3.8407    0.0000   -0.0711   -0.0231   -0.9972
   48.2011    3.5177    0.0000    0.4755    0.1545   -0.8660
   48.3061    3.1946    0.0000    0.8569    0.2784   -0.4339
   48.4110    2.8715    0.0000    0.9404    0.3056    0.1490
   48.5160    2.5485    0.0000    0.6972    0.2265    0.6802
   48.6210    2.2254    0.0000    0.2116    0.0688    0.9749
   48.7259    1.9024    0.0000   -0.3475   -0.1129    0.9309
   67.3117    1.1250    0.0000   -0.0000    0.7331   -0.6802
   67.6517    1.1250    0.0000    0.0000    0.9888   -0.1490
   67.9917    1.1250    0.0000    0.0000    0.9010    0.4339
   68.3317    1.1250    0.0000   -0.0000    0.5000    0.8660
   68.6717    1.1250    0.0000    0.0000   -0.0747    0.9972
   69.0117    1.1250    0.0000   -0.0000   -0.6235    0.7818
   69.3517    1.1250    0.0000    0.0000   -0.9556    0.2948
   69.6917    1.1250    0.0000    0.0000   -0.9556   -0.2948
   70.0317    1.1250    0.0000   -0.0000   -0.6235   -0.7818
   70.3717    1.1250    0.0000    0.0000   -0.0747   -0.9972
   70.7117    1.1250    0.0000   -0.0000    0.5000   -0.8660
   71.0517    1.1250    0.0000    0.0000    0.9010   -0.4339
   71.3917    1.1250    0.0000    0.0000    0.9888    0.1490
   71.7317    1.1250    0.0000   -0.0000    0.7331    0.6802
   72.0717    1.1250    0.0000    0.0000    0.2225    0.9749
   72.4117    1.1250    0.0000   -0.0000   -0.3653    0.9309
   72.7517    1.1250    0.0000    0.0000   -0.8262    0.5633
   73.0917    1.1250    0.0000    0.0000   -1.0000   -0.0000
   73.4317    1.1250    0.0000   -0.0000   -0.8262   -0.5633
   73.7717    1.1250    0.0000    0.0000   -0.3653   -0.9309
   74.1117    1.1250    0.0000   -0.0000    0.2225   -0.9749
   74.4517    1.1250    0.0000    0.0000    0.7331   -0.6802
   74.7917    1.1250    0.0000    0.0000    0.9888   -0.1490
   75.1317    1.1250    0.0000   -0.0000    0.9010    0.4339
   75.4717    1.1250    0.0000    0.0000    0.5000    0.8660
   75.8117    1.1250    0.0000   -0.0000   -0.0747    0.9972
   76.1517    1.1250    0.0000    0.0000   -0.6235    0.7818
   76.4917    1.1250    0.0000    0.0000   -0.9556    0.2948
   76.8317    1.1250    0.0000    0.0000   -0.9556   -0.2948
   77.1717    1.1250    0.0000    0.0000   -0.6235   -0.7818
   78.2417    2.5976    0.0000   -0.6972   -0.2265   -0.6802
   78.1369    2.9202    0.0000   -0.9404   -0.3056   -0.1490
   78.0320    3.2428    0.0000   -0.8569   -0.2784    0.4339
   77.9272    3.5654    0.0000   -0.4755   -0.1545    0.8660
   77.8224    3.8880    0.0000    0.0711    0.0231    0.9972
   77.7176    4.2105    0.0000    0.5930    0.1927    0.7818
   77.6128    4.5331    0.0000    0.9088    0.2953    0.2948
   77.5080    4.8557    0.0000    0.9088    0.2953   -0.2948
   77.4032    5.1783    0.0000    0.5930    0.1927   -0.7818
   77.2984    5.5009    0.0000    0.0711    0.0231   -0.9972
   77.1935    5.8234    0.0000   -0.4755   -0.1545   -0.8660
   77.0887    6.1460    0.0000   -0.8569   -0.2784   -0.4339
   76.9839    6.4686    0.0000   -0.9404   -0.3056    0.1490
   76.8791    6.7912    0.0000   -0.6972   -0.2265    0.6802
   76.7743    7.1138    0.0000   -0.2116   -0.0688    0.9749
   76.6695    7.4363    0.0000    0.3475    0.1129    0.9309
   76.5647    7.7589    0.0000    0.7858    0.2553    0.5633
   76.4599    8.0815    0.0000    0.9511    0.3090   -0.0000
   76.3550    8.4041    0.0000    0.7858    0.2553   -0.5633
   76.2502    8.7266    0.0000    0.3475    0.1129   -0.9309
   76.1454    9.0492    0.0000   -0.2116   -0.0688   -0.9749
   76.0406    9.3718    0.0000   -0.6972   -0.2265   -0.6802
   75.9358    9.6944    0.0000   -0.9404   -0.3056   -0.1490
   75.8310   10.0170    0.0000   -0.8569   -0.2784    0.4339
   75.7262   10.3395    0.0000   -0.4755   -0.1545    0.8660
   75.6214   10.6621    0.0000    0.0711    0.0231    0.9972
   75.5166   10.9847    0.0000    0.5930    0.1927    0.7818
   75.4117   11.3073    0.0000    0.9088    0.2953    0.2948
   75.3069   11.6299    0.0000    0.9088    0.2953   -0.2948
   75.2021   11.9524    0.0000    0.5930    0.1927   -0.7818
   75.0973   12.2750    0.0000    0.0711    0.0231   -0.9972
   74.9925   12.5976    0.0000   -0.4755   -0.1545   -0.8660
   74.8877   12.9202    0.0000   -0.8569   -0.2784   -0.4339
   74.7829   13.2428    0.0000   -0.9404   -0.3056    0.1490
   74.6781   13.5653    0.0000   -0.6972   -0.2265    0.6802
   74.5732   13.8879    0.0000   -0.2116   -0.0688    0.9749
   74.4684   14.2105    0.0000    0.3475    0.1129    0.9309
   74.3636   14.5331    0.0000    0.7858    0.2553    0.5633
   74.2588   14.8556    0.0000    0.9511    0.3090   -0.0000
   74.1540   15.1782    0.0000    0.7858    0.2553   -0.5633
   74.0492   15.5008    0.0000    0.3475    0.1129   -0.9309
   73.9444   15.8234    0.0000   -0.2116   -0.0688   -0.9749
   73.8396   16.1460    0.0000   -0.6972   -0.2265   -0.6802
   73.7347   16.4685    0.0000   -0.9404   -0.3056   -0.1490
   73.6299   16.7911    0.0000   -0.8569   -0.2784    0.4339
   73.5251   17.1137    0.0000   -0.4755   -0.1545    0.8660
   73.4203   17.4363    0.0000    0.0711    0.0231    0.9972
   73.3155   17.7589    0.0000    0.5930    0.1927    0.7818
   73.2107   18.0814    0.0000    0.9088    0.2953    0.2948
   73.1059   18.4040    0.0000    0.9088    0.2953   -0.2948
   73.0011   18.7266    0.0000    0.5930    0.1927   -0.7818
   72.8962   19.0492    0.0000    0.0711    0.0231   -0.9972
   72.7914   19.3718    0.0000   -0.4755   -0.1545   -0.8660
   72.6866   19.6943    0.0000   -0.8569   -0.2784   -0.4339
   72.5818   20.0169    0.0000   -0.9404   -0.3056    0.1490
   72.4770   20.3395    0.0000   -0.6972   -0.2265    0.6802
   72.3722   20.6621    0.0000   -0.2116   -0.0688    0.9749
   72.2674   20.9846    0.0000    0.3475    0.1129    0.9309
   72.1626   21.3072    0.0000    0.7858    0.2553    0.5633
   72.0577   21.6298    0.0000    0.9511    0.3090    0.0000
   71.9529   21.9524    0.0000    0.7858    0.2553   -0.5633
   71.8481   22.2750    0.0000    0.3475    0.1129   -0.9309
   71.7433   22.5975    0.0000   -0.2116   -0.0688   -0.9749
   71.6385   22.9201    0.0000   -0.6972   -0.2265   -0.6802
   71.5337   23.2427    0.0000   -0.9404   -0.3056   -0.1490
   71.4289   23.5653    0.0000   -0.8569   -0.2784    0.4339
   71.3241   23.8879    0.0000   -0.4755   -0.1545    0.8660
   71.2192   24.2104    0.0000    0.0711    0.0231    0.9972
   71.1144   24.5330    0.0000    0.5930    0.1927    0.7818
   71.0096   24.8556    0.0000    0.9088    0.2953    0.2948
   70.9048   25.1782    0.0000    0.9088    0.2953   -0.2948
   70.8000   25.5008    0.0000    0.5930    0.1927   -0.7818
   70.6952   25.8233    0.0000    0.0711    0.0231   -0.9972
   70.5904   26.1459    0.0000   -0.4755   -0.1545   -0.8660
   70.4856   26.4685    0.0000   -0.8569   -0.2784   -0.4339
   70.3807   26.7911    0.0000   -0.9404   -0.3056    0.1490
   70.2759   27.1137    0.0000   -0.6972   -0.2265    0.6802
   70.1711   27.4362    0.0000   -0.2116   -0.0688    0.9749
   70.0663   27.7588    0.0000    0.3475    0.1129    0.9309
   69.9615   28.0814    0.0000    0.7858    0.2553    0.5633
   69.8567   28.4040    0.0000    0.9511    0.3090    0.0000
   69.7519   28.7265    0.0000    0.7858    0.2553   -0.5633
   69.6471   29.0491    0.0000    0.3475    0.1129   -0.9309
   69.5423   29.3717    0.0000   -0.2116   -0.0688   -0.9749
   69.4374   29.6943    0.0000   -0.6972   -0.2265   -0.6802
   69.3326   30.0169    0.0000   -0.9404   -0.3056   -0.1490
   69.2278   30.3394    0.0000   -0.8569   -0.2784    0.4339
   69.1230   30.6620    0.0000   -0.4755   -0.1545    0.8660
   69.0182   30.9846    0.0000    0.0711    0.0231    0.9972
   68.9134   31.3072    0.0000    0.5930    0.1927    0.7818
   68.8086   31.6298    0.0000    0.9088    0.2953    0.2948
   68.7038   31.9523    0.0000    0.9088    0.2953   -0.2948
   68.5989   32.2749    0.0000    0.5930    0.1927   -0.7818
   68.4941   32.5975    0.0000    0.0711    0.0231   -0.9972
   68.3893   32.9201    0.0000   -0.4755   -0.1545   -0.8660
   68.2845   33.2427    0.0000   -0.8569   -0.2784   -0.4339
   68.1797   33.5652    0.0000   -0.9404   -0.3056    0.1490
   68.0749   33.8878    0.0000   -0.6972   -0.2265    0.6802
   67.9701   34.2104    0.0000   -0.2116   -0.0688    0.9749
   67.8653   34.5330    0.0000    0.3475    0.1129    0.9309
   67.7604   34.8555    0.0000    0.7858    0.2553    0.5633
   67.6556   35.1781    0.0000    0.9511    0.3090    0.0000
   67.5508   35.5007    0.0000    0.7858    0.2553   -0.5633
   67.4460   35.8233    0.0000    0.3475    0.1129   -0.9309
   67.3412   36.1459    0.0000   -0.2116   -0.0688   -0.9749
   67.2364   36.4684    0.0000   -0.6972   -0.2265   -0.6802
   67.1316   36.7910    0.0000   -0.9404   -0.3056   -0.1490
   67.0268   37.1136    0.0000   -0.8569   -0.2784    0.4339
   66.9219   37.4362    0.0000   -0.4755   -0.1545    0.8660
   66.8171   37.7588    0.0000    0.0711    0.0231    0.9972
   66.7123   38.0813    0.0000    0.5930    0.1927    0.7818
   66.6075   38.4039    0.0000    0.9088    0.2953    0.2948
   66.5027   38.7265    0.0000    0.9088    0.2953   -0.2948
   66.3979   39.0491    0.0000    0.5930    0.1927   -0.7818
   66.2931   39.3717    0.0000    0.0711    0.0231   -0.9972
   66.1883   39.6942    0.0000   -0.4755   -0.1545   -0.8660
   66.0834   40.0168    0.0000   -0.8569   -0.2784   -0.4339
   65.9786   40.3394    0.0000   -0.9404   -0.3056    0.1490
   65.8738   40.6620    0.0000   -0.6972   -0.2265    0.6802
   65.7690   40.9846    0.0000   -0.2116   -0.0688    0.9749
   65.6642   41.3071    0.0000    0.3475    0.1129    0.9309
   65.5594   41.6297    0.0000    0.7858    0.2553    0.5633
   65.4546   41.9523    0.0000    0.9511    0.3090    0.0000
   65.3498   42.2749    0.0000    0.7858    0.2553   -0.5633
   65.2449   42.5974    0.0000    0.3475    0.1129   -0.9309
   65.1401   42.9200    0.0000   -0.2116   -0.0688   -0.9749
   65.0353   43.2426    0.0000   -0.6972   -0.2265   -0.6802
   64.9305   43.5652    0.0000   -0.9404   -0.3056   -0.1490
   64.8257   43.8878    0.0000   -0.8569   -0.2784    0.4339
   63.0945   44.4503    0.0000    0.4309   -0.5931   -0.6802
   62.8194   44.2504    0.0000    0.5812   -0.8000   -0.1490
   62.5444   44.0506    0.0000    0.5296   -0.7289    0.4339
   62.2693   43.8507    0.0000    0.2939   -0.4045    0.8660
   61.9942   43.6509    0.0000   -0.0439    0.0605    0.9972
   61.7192   43.4510    0.0000   -0.3665    0.5044    0.7818
   61.4441   43.2512    0.0000   -0.5617    0.7731    0.2948
   61.1690   43.0513    0.0000   -0.5617    0.7731   -0.2948
   60.8940   42.8515    0.0000   -0.3665    0.5044   -0.7818
   60.6189   42.6516    0.0000   -0.0439    0.0605   -0.9972
   60.3438   42.4518    0.0000    0.2939   -0.4045   -0.8660
   60.0688   42.2519    0.0000    0.5296   -0.7289   -0.4339
   59.7937   42.0521    0.0000    0.5812   -0.8000    0.1490
   59.5186   41.8523    0.0000    0.4309   -0.5931    0.6802
   59.2436   41.6524    0.0000    0.1308   -0.1800    0.9749
   58.9685   41.4526    0.0000   -0.2147    0.2956    0.9309
   58.6934   41.2527    0.0000   -0.4857    0.6684    0.5633
   58.4184   41.0529    0.0000   -0.5878    0.8090    0.0000
   58.1433   40.8530    0.0000   -0.4857    0.6684   -0.5633
   57.8683   40.6532    0.0000   -0.2147    0.2956   -0.9309
   57.5932   40.4533    0.0000    0.1308   -0.1800   -0.9749
   57.3181   40.2535    0.0000    0.4309   -0.5931   -0.6802
   57.0431   40.0536    0.0000    0.5812   -0.8000   -0.1490
   56.7680   39.8538    0.0000    0.5296   -0.7289    0.4339
   56.4929   39.6539    0.0000    0.2939   -0.4045    0.8660
   56.2179   39.4541    0.0000   -0.0439    0.0605    0.9972
   55.9428   39.2542    0.0000   -0.3665    0.5044    0.7818
   55.6677   39.0544    0.0000   -0.5617    0.7731    0.2948
   55.3927   38.8545    0.0000   -0.5617    0.7731   -0.2948
   55.1176   38.6547    0.0000   -0.3665    0.5044   -0.7818
   48.7843   38.6547    0.0000   -0.4309   -0.5931   -0.6802
   48.5106   38.8536    0.0000   -0.5812   -0.8000   -0.1490
   48.2368   39.0524    0.0000   -0.5296   -0.7289    0.4339
   47.9631   39.2513    0.0000   -0.2939   -0.4045    0.8660
   47.6894   39.4501    0.0000    0.0439    0.0605    0.9972
   47.4157   39.6490    0.0000    0.3665    0.5044    0.7818
   47.1420   39.8478    0.0000    0.5617    0.7731    0.2948
   46.8683   40.0467    0.0000    0.5617    0.7731   -0.2948
   46.5946   40.2456    0.0000    0.3665    0.5044   -0.7818
   46.3209   40.4444    0.0000    0.0439    0.0605   -0.9972
   46.0472   40.6433    0.0000   -0.2939   -0.4045   -0.8660
   45.7735   40.8421    0.0000   -0.5296   -0.7289   -0.4339
   45.4998   41.0410    0.0000   -0.5812   -0.8000    0.1490
   45.2261   41.2398    0.0000   -0.4309   -0.5931    0.6802
   44.9524   41.4387    0.0000   -0.1308   -0.1800    0.9749
   44.6787   41.6376    0.0000    0.2147    0.2956    0.9309
   44.4050   41.8364    0.0000    0.4857    0.6684    0.5633
   44.1313   42.0353    0.0000    0.5878    0.8090    0.0000
   43.8576   42.2341    0.0000    0.4857    0.6684   -0.5633
   43.5839   42.4330    0.0000    0.2147    0.2956   -0.9309
   43.3102   42.6318    0.0000   -0.1308   -0.1800   -0.9749
   43.0365   42.8307    0.0000   -0.4309   -0.5931   -0.6802
   42.7628   43.0296    0.0000   -0.5812   -0.8000   -0.1490
   42.4891   43.2284    0.0000   -0.5296   -0.7289    0.4339
   42.2154   43.4273    0.0000   -0.2939   -0.4045    0.8660
   41.9417   43.6261    0.0000    0.0439    0.0605    0.9972
   41.6680   43.8250    0.0000    0.3665    0.5044    0.7818
   41.3943   44.0238    0.0000    0.5617    0.7731    0.2948
   41.1206   44.2227    0.0000    0.5617    0.7731   -0.2948
   40.8469   44.4216    0.0000    0.3665    0.5044   -0.7818
   40.5732   44.6204    0.0000    0.0439    0.0605   -0.9972
   40.2995   44.8193    0.0000   -0.2939   -0.4045   -0.8660
   40.0258   45.0181    0.0000   -0.5296   -0.7289   -0.4339
   39.7520   45.2170    0.0000   -0.5812   -0.8000    0.1490
   39.4783   45.4158    0.0000   -0.4309   -0.5931    0.6802
   39.2046   45.6147    0.0000   -0.1308   -0.1800    0.9749
   38.9309   45.8136    0.0000    0.2147    0.2956    0.9309
   38.6572   46.0124    0.0000    0.4857    0.6684    0.5633
   38.3835   46.2113    0.0000    0.5878    0.8090    0.0000
   38.1098   46.4101    0.0000    0.4857    0.6684   -0.5633
   37.8361   46.6090    0.0000    0.2147    0.2956   -0.9309
   37.5624   46.8078    0.0000   -0.1308   -0.1800   -0.9749
   37.2887   47.0067    0.0000   -0.4309   -0.5931   -0.6802
   37.0150   47.2056    0.0000   -0.5812   -0.8000   -0.1490
   36.7413   47.4044    0.0000   -0.5296   -0.7289    0.4339
   36.4676   47.6033    0.0000   -0.2939   -0.4045    0.8660
   36.1939   47.8021    0.0000    0.0439    0.0605    0.9972
   35.9202   48.0010    0.0000    0.3665    0.5044    0.7818
   35.6465   48.1998    0.0000    0.5617    0.7731    0.2948
   35.3728   48.3987    0.0000    0.5617    0.7731   -0.2948
   35.0991   48.5975    0.0000    0.3665    0.5044   -0.7818
   34.8254   48.7964    0.0000    0.0439    0.0605   -0.9972
   34.5517   48.9953    0.0000   -0.2939   -0.4045   -0.8660
   34.2780   49.1941    0.0000   -0.5296   -0.7289   -0.4339